TITLE="PHI contour plot on physical mesh"
VARIABLES="X","Y","PHI"
ZONE	 F=POINT
I=81, J=81
0.135373044505911	0.000000000000000	1.353730445059110
0.145280309573776	0.017833243733109	1.363636877072217
0.155187574641642	0.035666487466217	1.373543309085335
0.165094839709507	0.053499731199325	1.383449741098443
0.175002104777373	0.071332974932434	1.393356173111561
0.185291347961793	0.088194850723978	1.411939225998041
0.195580591146212	0.105056726515522	1.430522278884510
0.205869834330632	0.121918602307066	1.449105331770990
0.216159077515053	0.138780478098610	1.467688384657480
0.226620600625510	0.154878132694285	1.491815342783675
0.237082123735966	0.170975787289959	1.515942300909865
0.247543646846422	0.187073441885634	1.540069259036050
0.258005169956878	0.203171096481309	1.564196217162235
0.268614027483718	0.218347209442546	1.594404227624450
0.279222885010558	0.233523322403783	1.624612238086665
0.289831742537398	0.248699435365020	1.654820248548880
0.300440600064239	0.263875548326258	1.685028259011100
0.311177303328045	0.278029160119272	1.721627232684090
0.321914006591853	0.292182771912287	1.758226206357095
0.332650709855660	0.306336383705301	1.794825180030095
0.343387413119466	0.320489995498316	1.831424153703080
0.354232473440826	0.333575200574574	1.874448731535390
0.365077533762185	0.346660405650833	1.917473309367685
0.375922594083545	0.359745610727091	1.960497887199995
0.386767654404904	0.372830815803349	2.003522465032295
0.397702362651578	0.384840099375547	2.052823129638045
0.408637070898251	0.396849382947745	2.102123794243785
0.419571779144924	0.408858666519943	2.151424458849525
0.430506487391599	0.420867950092141	2.200725123455285
0.441511354884171	0.431821732777954	2.256004884951940
0.452516222376743	0.442775515463766	2.311284646448601
0.463521089869315	0.453729298149578	2.366564407945260
0.474525957361888	0.464683080835391	2.421844169441925
0.485581495420940	0.474622203870168	2.482703934858560
0.496637033479991	0.484561326904945	2.543563700275185
0.507692571539043	0.494500449939722	2.604423465691821
0.518748109598094	0.504439572974499	2.665283231108445
0.529837168185741	0.513419090343492	2.731276230139950
0.540926226773387	0.522398607712485	2.797269229171444
0.552015285361033	0.531378125081478	2.863262228202940
0.563104343948679	0.540357642450472	2.929255227234430
0.574208213932685	0.548442083305534	2.999871722799179
0.585312083916691	0.556526524160597	3.070488218363925
0.596415953900696	0.564610965015659	3.141104713928665
0.607519823884702	0.572695405870722	3.211721209493411
0.618621355227174	0.579955017136656	3.286438466588460
0.629722886569645	0.587214628402590	3.361155723683500
0.640824417912117	0.594474239668523	3.435872980778554
0.651925949254589	0.601733850934457	3.510590237873605
0.663007991917648	0.608240839915361	3.588875719599675
0.674090034580705	0.614747828896265	3.667161201325726
0.685172077243763	0.621254817877169	3.745446683051785
0.696254119906820	0.627761806858073	3.823732164777835
0.707302642041282	0.633588054128163	3.905086149772005
0.718351164175745	0.639414301398254	3.986440134766180
0.729399686310207	0.645240548668344	4.067794119760350
0.740448208444671	0.651066795938434	4.149148104754540
0.751447619107005	0.656281159820510	4.233070391967500
0.762447029769341	0.661495523702587	4.316992679180474
0.773446440431677	0.666709887584663	4.400914966393454
0.784445851094013	0.671924251466740	4.484837253606430
0.795384457076569	0.676591898235927	4.570885079586055
0.806323063059125	0.681259545005114	4.656932905565681
0.817261669041681	0.685927191774301	4.742980731545305
0.828200275024236	0.690594838543488	4.829028557524920
0.839067162666542	0.694775510758856	4.916794072871140
0.849934050308850	0.698956182974223	5.004559588217385
0.860800937951159	0.703136855189591	5.092325103563635
0.871667825593465	0.707317527404959	5.180090618909855
0.882454419876578	0.711065347871593	5.269217459407815
0.893241014159692	0.714813168338228	5.358344299905779
0.904027608442805	0.718560988804862	5.447471140403740
0.914814202725918	0.722308809271496	5.536597980901700
0.925510369536541	0.725671970647110	5.626743842129860
0.936206536347164	0.729035132022724	5.716889703358020
0.946902703157788	0.732398293398338	5.807035564586190
0.957598869968412	0.735761454773952	5.897181425814361
0.968199152476310	0.738782464616297	5.988079201681615
0.978799434984206	0.741803474458643	6.078976977548844
0.989399717492103	0.744824484300988	6.169874753416089
1.000000000000000	0.747845494143334	6.260772529283329
0.133179788524445	0.005786059494506	1.302867587771921
0.143138016488984	0.023493185492853	1.313914237425573
0.153096244453521	0.041200311491201	1.324960887079205
0.163054472418059	0.058907437489549	1.336007536732847
0.173012700382598	0.076614563487896	1.347054186386498
0.183341992803218	0.093369312719117	1.366573364436594
0.193671285223838	0.110124061950338	1.386092542486690
0.204000577644457	0.126878811181559	1.405611720536775
0.214329870065077	0.143633560412780	1.425130898586870
0.224823257166379	0.159643283828746	1.450016152520060
0.235316644267680	0.175653007244712	1.474901406453240
0.245810031368982	0.191662730660678	1.499786660386430
0.256303418470282	0.207672454076645	1.524671914319595
0.266937708723759	0.222776584360578	1.555494165434700
0.277571998977238	0.237880714644510	1.586316416549830
0.288206289230716	0.252984844928443	1.617138667664945
0.298840579484194	0.268088975212376	1.647960918780060
0.309597648417989	0.282183489737839	1.685059035490695
0.320354717351785	0.296278004263302	1.722157152201340
0.331111786285581	0.310372518788765	1.759255268911985
0.341868855219379	0.324467033314229	1.796353385622645
0.352730480918241	0.337503596479185	1.839786826786485
0.363592106617105	0.350540159644142	1.883220267950340
0.374453732315968	0.363576722809098	1.926653709114190
0.385315358014832	0.376613285974055	1.970087150278045
0.396263610893699	0.388582504294374	2.019723587465120
0.407211863772567	0.400551722614694	2.069360024652200
0.418160116651434	0.412520940935014	2.118996461839270
0.429108369530302	0.424490159255333	2.168632899026355
0.440124443013538	0.435410921802365	2.224189821123555
0.451140516496775	0.446331684349397	2.279746743220764
0.462156589980010	0.457252446896429	2.335303665317956
0.473172663463247	0.468173209443461	2.390860587415165
0.484237750975213	0.478085070953642	2.451952154983920
0.495302838487178	0.487996932463822	2.513043722552670
0.506367925999144	0.497908793974003	2.574135290121426
0.517433013511110	0.507820655484184	2.635226857690181
0.528530354787508	0.516777608070646	2.701415507521849
0.539627696063906	0.525734560657109	2.767604157353515
0.550725037340304	0.534691513243571	2.833792807185185
0.561822378616702	0.543648465830034	2.899981457016850
0.572933751742282	0.551714140137453	2.970766816735555
0.584045124867863	0.559779814444872	3.041552176454269
0.595156497993443	0.567845488752291	3.112337536172975
0.606267871119024	0.575911163059711	3.183122895891685
0.617376320942689	0.583155009608799	3.257988161382896
0.628484770766354	0.590398856157888	3.332853426874100
0.639593220590019	0.597642702706977	3.407718692365305
0.650701670413684	0.604886549256066	3.482583957856510
0.661790436671140	0.611380142311775	3.561003655152525
0.672879202928596	0.617873735367484	3.639423352448540
0.683967969186052	0.624367328423193	3.717843049744554
0.695056735443508	0.630860921478902	3.796262747040569
0.706111981172369	0.636675561669906	3.877742003374160
0.717167226901230	0.642490201860910	3.959221259707751
0.728222472630091	0.648304842051913	4.040700516041346
0.739277718358952	0.654119482242917	4.122179772374934
0.750284047502480	0.659323670531206	4.206222122368770
0.761290376646009	0.664527858819495	4.290264472362614
0.772296705789535	0.669732047107784	4.374306822356431
0.783303034933064	0.674936235396073	4.458349172350275
0.794248851727003	0.679594780695962	4.544514613790220
0.805194668520943	0.684253325995851	4.630680055230175
0.816140485314884	0.688911871295741	4.716845496670135
0.827086302108824	0.693570416595630	4.803010938110089
0.837960790336104	0.697742834797334	4.890893729374371
0.848835278563382	0.701915252999037	4.978776520638635
0.859709766790661	0.706087671200741	5.066659311902905
0.870584255017941	0.710260089402444	5.154542103167190
0.881378742216217	0.714000331777860	5.243785763272870
0.892173229414494	0.717740574153275	5.333029423378565
0.902967716612770	0.721480816528690	5.422273083484249
0.913762203811048	0.725221058904105	5.511516743589955
0.924466848197218	0.728577209881671	5.601782432563826
0.935171492583386	0.731933360859237	5.692048121537676
0.945876136969555	0.735289511836803	5.782313810511535
0.956580781355725	0.738645662814369	5.872579499485404
0.967190028656153	0.741660156437614	5.963599504373461
0.977799275956582	0.744674650060860	6.054619509261519
0.988408523257010	0.747689143684106	6.145639514149571
0.999017770557438	0.750703637307351	6.236659519037625
0.130986532542980	0.011572118989011	1.252004730484743
0.140995723404190	0.029153127252598	1.264191597778909
0.151004914265401	0.046734135516185	1.276378465073085
0.161014105126612	0.064315143779772	1.288565332367260
0.171023295987823	0.081896152043359	1.300752199661436
0.181392637644643	0.098543774714257	1.321207502875147
0.191761979301461	0.115191397385154	1.341662806088840
0.202131320958280	0.131839020056052	1.362118109302540
0.212500662615100	0.148486642726950	1.382573412516250
0.223025913707247	0.164408434963208	1.408216962256430
0.233551164799393	0.180330227199466	1.433860511996600
0.244076415891539	0.196252019435723	1.459504061736775
0.254601666983686	0.212173811671981	1.485147611476956
0.265261389963801	0.227205959278609	1.516584103244965
0.275921112943916	0.242238106885238	1.548020595012970
0.286580835924032	0.257270254491866	1.579457086780990
0.297240558904147	0.272302402098494	1.610893578549000
0.308017993507932	0.286337819356406	1.648490838297290
0.318795428111718	0.300373236614318	1.686088098045590
0.329572862715505	0.314408653872229	1.723685357793905
0.340350297319291	0.328444071130141	1.761282617542205
0.351228488395658	0.341431992383796	1.805124922037600
0.362106679472024	0.354419913637451	1.848967226532985
0.372984870548392	0.367407834891105	1.892809531028395
0.383863061624760	0.380395756144760	1.936651835523800
0.394824859135821	0.392324909213201	1.986624045292205
0.405786656646883	0.404254062281642	2.036596255060620
0.416748454157944	0.416183215350084	2.086568464829020
0.427710251669006	0.428112368418525	2.136540674597435
0.438737531142905	0.439000110826776	2.192374757295170
0.449764810616806	0.449887853235028	2.248208839992920
0.460792090090707	0.460775595643279	2.304042922690675
0.471819369564606	0.471663338051531	2.359877005388405
0.482894006529485	0.481547938037115	2.421200375109275
0.493968643494365	0.491432538022700	2.482523744830150
0.505043280459244	0.501317138008285	2.543847114551014
0.516117917424125	0.511201737993870	2.605170484271900
0.527223541389274	0.520136125797801	2.671554784903735
0.538329165354424	0.529070513601733	2.737939085535575
0.549434789319575	0.538004901405664	2.804323386167430
0.560540413284724	0.546939289209595	2.870707686799266
0.571659289551879	0.554986196969371	2.941661910671934
0.582778165819036	0.563033104729147	3.012616134544625
0.593897042086192	0.571080012488923	3.083570358417305
0.605015918353347	0.579126920248699	3.154524582289975
0.616131286658205	0.586355002080943	3.229537856177335
0.627246654963062	0.593583083913186	3.304551130064690
0.638362023267921	0.600811165745430	3.379564403952060
0.649477391572778	0.608039247577674	3.454577677839409
0.660572881424633	0.614519444708188	3.533131590705390
0.671668371276488	0.620999641838702	3.611685503571370
0.682763861128342	0.627479838969217	3.690239416437335
0.693859350980197	0.633960036099731	3.768793329303316
0.704921320303455	0.639763069211648	3.850397856976310
0.715983289626715	0.645566102323566	3.932002384649320
0.727045258949975	0.651369135435483	4.013606912322334
0.738107228273233	0.657172168547400	4.095211439995330
0.749120475897952	0.662366181241901	4.179373852770015
0.760133723522673	0.667560193936403	4.263536265544715
0.771146971147394	0.672754206630905	4.347698678319414
0.782160218772115	0.677948219325406	4.431861091094119
0.793113246377439	0.682597663155998	4.518144147994399
0.804066273982763	0.687247106986589	4.604427204894685
0.815019301588086	0.691896550817181	4.690710261794954
0.825972329193411	0.696545994647772	4.776993318695250
0.836854418005662	0.700710158835812	4.864993385877560
0.847736506817914	0.704874323023851	4.952993453059884
0.858618595630166	0.709038487211891	5.040993520242203
0.869500684442417	0.713202651399930	5.128993587424521
0.880303064555858	0.716935315684126	5.218354067137950
0.891105444669298	0.720667979968322	5.307714546851369
0.901907824782738	0.724400644252518	5.397075026564790
0.912710204896179	0.728133308536714	5.486435506278220
0.923423326857893	0.731482449116232	5.576821022997770
0.934136448819608	0.734831589695750	5.667206539717330
0.944849570781322	0.738180730275268	5.757592056436881
0.955562692743036	0.741529870854786	5.847977573156430
0.966180904835997	0.744537848258932	5.939119807065310
0.976799116928957	0.747545825663077	6.030262040974186
0.987417329021916	0.750553803067223	6.121404274883044
0.998035541114877	0.753561780471368	6.212546508791929
0.128793276561515	0.017358178483517	1.201141873197564
0.138853430319398	0.034813069012343	1.214468958132264
0.148913584077282	0.052267959541169	1.227796043066974
0.158973737835165	0.069722850069995	1.241123128001674
0.169033891593048	0.087177740598821	1.254450212936374
0.179443282486067	0.103718236709396	1.275841641313690
0.189852673379085	0.120258732819971	1.297233069690995
0.200262064272104	0.136799228930546	1.318624498068310
0.210671455165124	0.153339725041120	1.340015926445640
0.221228570248115	0.169173586097669	1.366417771992805
0.231785685331105	0.185007447154219	1.392819617539955
0.242342800414097	0.200841308210768	1.419221463087130
0.252899915497089	0.216675169267317	1.445623308634305
0.263585071203841	0.231635334196641	1.477674041055205
0.274270226910594	0.246595499125965	1.509724773476115
0.284955382617347	0.261555664055289	1.541775505897025
0.295640538324100	0.276515828984613	1.573826238317935
0.306438338597875	0.290492148974973	1.611922641103885
0.317236138871651	0.304468468965333	1.650019043889845
0.328033939145426	0.318444788955694	1.688115446675790
0.338831739419203	0.332421108946054	1.726211849461760
0.349726495873073	0.345360388288407	1.770463017288695
0.360621252326944	0.358299667630759	1.814714185115645
0.371516008780816	0.371238946973112	1.858965352942600
0.382410765234687	0.384178226315465	1.903216520769545
0.393386107377943	0.396067314132028	1.953524503119290
0.404361449521199	0.407956401948591	2.003832485469035
0.415336791664455	0.419845489765154	2.054140467818780
0.426312133807710	0.431734577581717	2.104448450168515
0.437350619272274	0.442589299851188	2.160559693466800
0.448389104736837	0.453444022120659	2.216670936765075
0.459427590201401	0.464298744390130	2.272782180063360
0.470466075665965	0.475153466659601	2.328893423361645
0.481550262083758	0.485010805120589	2.390448595234635
0.492634448501552	0.494868143581578	2.452003767107631
0.503718634919345	0.504725482042567	2.513558938980615
0.514802821337139	0.514582820503555	2.575114110853615
0.525916727991041	0.523494643524956	2.641694062285631
0.537030634644943	0.532406466546356	2.708274013717650
0.548144541298844	0.541318289567757	2.774853965149656
0.559258447952746	0.550230112589157	2.841433916581675
0.570384827361478	0.558258253801290	2.912557004608329
0.581511206770208	0.566286395013423	2.983680092634964
0.592637586178939	0.574314536225555	3.054803180661616
0.603763965587671	0.582342677437688	3.125926268688270
0.614886252373720	0.589554994553086	3.201087550971770
0.626008539159772	0.596767311668485	3.276248833255295
0.637130825945823	0.603979628783883	3.351410115538815
0.648253112731873	0.611191945899282	3.426571397822320
0.659355326178126	0.617658747104602	3.505259526258250
0.670457539624379	0.624125548309921	3.583947654694185
0.681559753070633	0.630592349515241	3.662635783130125
0.692661966516886	0.637059150720560	3.741323911566061
0.703730659434543	0.642850576753391	3.823053710578476
0.714799352352200	0.648642002786222	3.904783509590890
0.725868045269857	0.654433428819052	3.986513308603310
0.736936738187514	0.660224854851883	4.068243107615725
0.747956904293427	0.665408691952597	4.152525583171285
0.758977070399340	0.670592529053311	4.236808058726846
0.769997236505253	0.675776366154025	4.321090534282404
0.781017402611167	0.680960203254739	4.405373009837975
0.791977641027874	0.685600545616033	4.491773682198575
0.802937879444582	0.690240887977327	4.578174354559184
0.813898117861291	0.694881230338621	4.664575026919803
0.824858356277999	0.699521572699915	4.750975699280415
0.835748045675224	0.703677482874290	4.839093042380791
0.846637735072447	0.707833393048665	4.927210385481144
0.857527424469671	0.711989303223040	5.015327728581509
0.868417113866894	0.716145213397415	5.103445071681866
0.879227386895498	0.719870299590392	5.192922371003020
0.890037659924101	0.723595385783369	5.282399670324165
0.900847932952704	0.727320471976345	5.371876969645315
0.911658205981308	0.731045558169322	5.461354268966470
0.922379805518569	0.734387688350792	5.551859613431729
0.933101405055829	0.737729818532263	5.642364957896975
0.943823004593090	0.741071948713733	5.732870302362235
0.954544604130350	0.744414078895204	5.823375646827479
0.965171781015841	0.747415540080249	5.914640109757164
0.975798957901333	0.750417001265294	6.005904572686860
0.986426134786824	0.753418462450340	6.097169035616540
0.997053311672315	0.756419923635385	6.188433498546225
0.126600020580049	0.023144237978023	1.150279015910375
0.136711137234606	0.040473010772088	1.164746318485620
0.146822253889162	0.057801783566153	1.179213621060853
0.156933370543718	0.075130556360219	1.193680923636087
0.167044487198274	0.092459329154284	1.208148226211321
0.177493927327493	0.108892698704535	1.230475779752255
0.187943367456710	0.125326068254787	1.252803333293165
0.198392807585929	0.141759437805039	1.275130886834095
0.208842247715148	0.158192807355291	1.297458440375025
0.219431226788984	0.173938737232131	1.324618581729185
0.230020205862819	0.189684667108972	1.351778723083330
0.240609184936655	0.205430596985812	1.378938864437490
0.251198164010493	0.221176526862653	1.406099005791665
0.261908752443882	0.236064709114672	1.438763978865460
0.272619340877272	0.250952891366692	1.471428951939260
0.283329929310663	0.265841073618712	1.504093925013070
0.294040517744053	0.280729255870732	1.536758898086870
0.304858683687818	0.294646478593540	1.575354443910480
0.315676849631583	0.308563701316349	1.613949989734085
0.326495015575350	0.322480924039158	1.652545535557710
0.337313181519115	0.336398146761967	1.691141081381315
0.348224503350490	0.349288784193018	1.735801112539810
0.359135825181864	0.362179421624068	1.780461143698300
0.370047147013239	0.375070059055119	1.825121174856795
0.380958468844615	0.387960696486170	1.869781206015300
0.391947355620065	0.399809719050855	1.920424960946375
0.402936242395515	0.411658741615539	1.971068715877455
0.413925129170965	0.423507764180224	2.021712470808530
0.424914015946414	0.435356786744909	2.072356225739595
0.435963707401642	0.446178488875599	2.128744629638425
0.447013398856870	0.457000191006290	2.185133033537250
0.458063090312097	0.467821893136980	2.241521437436070
0.469112781767324	0.478643595267671	2.297909841334885
0.480206517638033	0.488473672204063	2.359696815360015
0.491300253508740	0.498303749140456	2.421483789385120
0.502393989379447	0.508133826076848	2.483270763410230
0.513487725250155	0.517963903013240	2.545057737435350
0.524609914592808	0.526853161252110	2.611833339667530
0.535732103935461	0.535742419490980	2.678608941899710
0.546854293278114	0.544631677729850	2.745384544131890
0.557976482620768	0.553520935968719	2.812160146364086
0.569110365171074	0.561530310633208	2.883452098544701
0.580244247721381	0.569539685297698	2.954744050725319
0.591378130271687	0.577549059962187	3.026036002905935
0.602512012821993	0.585558434626676	3.097327955086550
0.613641218089236	0.592754987025230	3.172637245766210
0.624770423356480	0.599951539423783	3.247946536445885
0.635899628623724	0.607148091822337	3.323255827125555
0.647028833890967	0.614344644220890	3.398565117805220
0.658137770931618	0.620798049501015	3.477387461811105
0.669246707972270	0.627251454781140	3.556209805817000
0.680355645012922	0.633704860061264	3.635032149822900
0.691464582053574	0.640158265341389	3.713854493828795
0.702539998565630	0.645938084295134	3.795709564180630
0.713615415077685	0.651717903248878	3.877564634532460
0.724690831589739	0.657497722202622	3.959419704884280
0.735766248101795	0.663277541156366	4.041274775236120
0.746793332688900	0.668451202663293	4.125677313572535
0.757820417276006	0.673624864170219	4.210079851908965
0.768847501863112	0.678798525677146	4.294482390245390
0.779874586450217	0.683972187184073	4.378884928581805
0.790842035678309	0.688603428076069	4.465403216402745
0.801809484906403	0.693234668968065	4.551921504223706
0.812776934134495	0.697865909860061	4.638439792044646
0.823744383362587	0.702497150752057	4.724958079865586
0.834641673344782	0.706644806912768	4.813192698883979
0.845538963326979	0.710792463073479	4.901427317902394
0.856436253309176	0.714940119234190	4.989661936920810
0.867333543291371	0.719087775394901	5.077896555939205
0.878151709235138	0.722805283496658	5.167490674868089
0.888969875178904	0.726522791598416	5.257084793796960
0.899788041122671	0.730240299700173	5.346678912725845
0.910606207066438	0.733957807801931	5.436273031654726
0.921336284179244	0.737292927585353	5.526898203865676
0.932066361292051	0.740628047368776	5.617523376076631
0.942796438404857	0.743963167152198	5.708148548287580
0.953526515517663	0.747298286935621	5.798773720498525
0.964162657195685	0.750293231901566	5.890160412449019
0.974798798873708	0.753288176867511	5.981547104399525
0.985434940551732	0.756283121833457	6.072933796350036
0.996071082229754	0.759278066799402	6.164320488300531
0.124406764598583	0.028930297472529	1.099416158623187
0.134568844149813	0.046132952531833	1.115023678838964
0.144730923701042	0.063335607591138	1.130631199054733
0.154893003252271	0.080538262650442	1.146238719270501
0.165055082803501	0.097740917709746	1.161846239486278
0.175544572168918	0.114067160699675	1.185109918190805
0.186034061534335	0.130393403689604	1.208373596895330
0.196523550899753	0.146719646679532	1.231637275599870
0.207013040265170	0.163045889669461	1.254900954304395
0.217633883329852	0.178703888366593	1.282819391465555
0.228254726394533	0.194361887063725	1.310737828626705
0.238875569459215	0.210019885760857	1.338656265787865
0.249496412523897	0.225677884457989	1.366574702949025
0.260232433683923	0.240494084032704	1.399853916675710
0.270968454843952	0.255310283607419	1.433133130402425
0.281704476003980	0.270126483182135	1.466412344129125
0.292440497164006	0.284942682756850	1.499691557855810
0.303279028777761	0.298800808212107	1.538786246717075
0.314117560391516	0.312658933667365	1.577880935578335
0.324956092005271	0.326517059122622	1.616975624439600
0.335794623619027	0.340375184577879	1.656070313300875
0.346722510827905	0.353217180097628	1.701139207790910
0.357650398036784	0.366059175617377	1.746208102280955
0.368578285245663	0.378901171137127	1.791276996770995
0.379506172454542	0.391743166656876	1.836345891261040
0.390508603862186	0.403552123969682	1.887325418773450
0.401511035269829	0.415361081282488	1.938304946285850
0.412513466677472	0.427170038595294	1.989284473798250
0.423515898085117	0.438978995908100	2.040264001310670
0.434576795531008	0.449767677900010	2.096929565810029
0.445637692976899	0.460556359891920	2.153595130309389
0.456698590422791	0.471345041883831	2.210260694808755
0.467759487868683	0.482133723875741	2.266926259308125
0.478862773192305	0.491936539287537	2.328945035485365
0.489966058515928	0.501739354699333	2.390963811662616
0.501069343839550	0.511542170111129	2.452982587839855
0.512172629163171	0.521344985522926	2.515001364017080
0.523303101194577	0.530211678979265	2.581972617049445
0.534433573225981	0.539078372435603	2.648943870081794
0.545564045257385	0.547945065891942	2.715915123114140
0.556694517288791	0.556811759348281	2.782886376146506
0.567835902980672	0.564802367465127	2.854347192481085
0.578977288672553	0.572792975581973	2.925808008815665
0.590118674364433	0.580783583698819	2.997268825150235
0.601260060056315	0.588774191815665	3.068729641484825
0.612396183804752	0.595954979497373	3.144186940560656
0.623532307553188	0.603135767179082	3.219644239636470
0.634668431301624	0.610316554860790	3.295101538712291
0.645804555050062	0.617497342542498	3.370558837788129
0.656920215685111	0.623937351897428	3.449515397363970
0.668035876320162	0.630377361252358	3.528471956939830
0.679151536955212	0.636817370607288	3.607428516515680
0.690267197590262	0.643257379962218	3.686385076091530
0.701349337696716	0.649025591836876	3.768365417782780
0.712431477803169	0.654793803711534	3.850345759474020
0.723513617909622	0.660562015586192	3.932326101165259
0.734595758016076	0.666330227460849	4.014306442856515
0.745629761084374	0.671493713373989	4.098829043973794
0.756663764152672	0.676657199287128	4.183351645091080
0.767697767220970	0.681820685200267	4.267874246208366
0.778731770289268	0.686984171113406	4.352396847325650
0.789706430328745	0.691606310536104	4.439032750606930
0.800681090368221	0.696228449958803	4.525668653888195
0.811655750407699	0.700850589381501	4.612304557169486
0.822630410447175	0.705472728804199	4.698940460450754
0.833535301014344	0.709612130951246	4.787292355387209
0.844440191581511	0.713751533098293	4.875644250323646
0.855345082148679	0.717890935245339	4.963996145260094
0.866249972715848	0.722030337392386	5.052348040196549
0.877076031574778	0.725740267402924	5.142058978733159
0.887902090433708	0.729450197413463	5.231769917269766
0.898728149292639	0.733160127424001	5.321480855806385
0.909554208151569	0.736870057434539	5.411191794342995
0.920292762839921	0.740198166819914	5.501936794299641
0.931031317528273	0.743526276205289	5.592681794256285
0.941769872216624	0.746854385590663	5.683426794212925
0.952508426904976	0.750182494976038	5.774171794169570
0.963153533375530	0.753170923722883	5.865680715140885
0.973798639846084	0.756159352469728	5.957189636112199
0.984443746316638	0.759147781216574	6.048698557083509
0.995088852787192	0.762136209963419	6.140207478054824
0.122213508617116	0.034716356967034	1.048553301335988
0.132426551065019	0.051792894291578	1.065301039192300
0.142639593512921	0.068869431616122	1.082048777048602
0.152852635960823	0.085945968940665	1.098796514904903
0.163065678408726	0.103022506265209	1.115544252761215
0.173595217010343	0.119241622694815	1.139744056629355
0.184124755611961	0.135460739124420	1.163943860497510
0.194654294213578	0.151679855554026	1.188143664365650
0.205183832815194	0.167898971983631	1.212343468233785
0.215836539870720	0.183469039501055	1.241020201201925
0.226489246926247	0.199039107018478	1.269696934170080
0.237141953981773	0.214609174535902	1.298373667138220
0.247794661037299	0.230179242053325	1.327050400106365
0.258556114923965	0.244923458950736	1.360943854485970
0.269317568810631	0.259667675848147	1.394837308865575
0.280079022697297	0.274411892745558	1.428730763245180
0.290840476583961	0.289156109642969	1.462624217624765
0.301699373867706	0.302955137830674	1.502218049523690
0.312558271151450	0.316754166018380	1.541811881422600
0.323417168435195	0.330553194206086	1.581405713321520
0.334276065718940	0.344352222393792	1.620999545220440
0.345220518305322	0.357145576002239	1.666477303042025
0.356164970891704	0.369938929610686	1.711955060863610
0.367109423478087	0.382732283219134	1.757432818685200
0.378053876064470	0.395525636827581	1.802910576506795
0.389069852104308	0.407294528888509	1.854225876600535
0.400085828144145	0.419063420949436	1.905541176694270
0.411101804183982	0.430832313010364	1.956856476788000
0.422117780223821	0.442601205071292	2.008171776881750
0.433189883660376	0.453356866924422	2.065114501981649
0.444261987096932	0.464112528777551	2.122057227081565
0.455334090533487	0.474868190630681	2.178999952181465
0.466406193970042	0.485623852483811	2.235942677281365
0.477519028746579	0.495399406371011	2.298193255610735
0.488631863523115	0.505174960258211	2.360443833940095
0.499744698299650	0.514950514145411	2.422694412269445
0.510857533076186	0.524726068032611	2.484944990598805
0.521996287796343	0.533570196706419	2.552111894431334
0.533135042516499	0.542414325380227	2.619278798263855
0.544273797236656	0.551258454054035	2.686445702096385
0.555412551956813	0.560102582727843	2.753612605928916
0.566561440790268	0.568074424297046	2.825242286417450
0.577710329623725	0.576046265866248	2.896871966906010
0.588859218457182	0.584018107435451	2.968501647394565
0.600008107290638	0.591989949004654	3.040131327883111
0.611151149520268	0.599154971969517	3.115736635355096
0.622294191749898	0.606319994934380	3.191341942827079
0.633437233979526	0.613485017899243	3.266947250299046
0.644580276209156	0.620650040864107	3.342552557771025
0.655702660438604	0.627076654293842	3.421643332916831
0.666825044668053	0.633503267723577	3.500734108062646
0.677947428897503	0.639929881153312	3.579824883208470
0.689069813126951	0.646356494583047	3.658915658354275
0.700158676827802	0.652113099378619	3.741021271384924
0.711247540528654	0.657869704174190	3.823126884415590
0.722336404229506	0.663626308969761	3.905232497446255
0.733425267930357	0.669382913765333	3.987338110476905
0.744466189479849	0.674536224084684	4.071980774375069
0.755507111029339	0.679689534404036	4.156623438273210
0.766548032578830	0.684842844723388	4.241266102171361
0.777588954128320	0.689996155042739	4.325908766069505
0.788570824979181	0.694609192996140	4.412662284811110
0.799552695830042	0.699222230949541	4.499415803552715
0.810534566680903	0.703835268902941	4.586169322294325
0.821516437531763	0.708448306856342	4.672922841035920
0.832428928683904	0.712579454989724	4.761392011890420
0.843341419836044	0.716710603123107	4.849861182744905