TITLE="U contour plot on physical mesh"
VARIABLES="X","Y","U"
ZONE	 F=POINT
I=81, J=81
0.135373044505911	0.000000000000000	10.000000000000055
0.145280309573776	0.017833243733109	10.000000000000044
0.155187574641642	0.035666487466217	10.000000000000009
0.165094839709507	0.053499731199325	9.999999999999890
0.175002104777373	0.071332974932434	10.000000000000089
0.185291347961793	0.088194850723978	9.999999999999908
0.195580591146212	0.105056726515522	10.000000000000094
0.205869834330632	0.121918602307066	10.000000000000059
0.216159077515053	0.138780478098610	9.999999999999984
0.226620600625510	0.154878132694285	10.000000000000027
0.237082123735966	0.170975787289959	9.999999999999988
0.247543646846422	0.187073441885634	10.000000000000105
0.258005169956878	0.203171096481309	9.999999999999998
0.268614027483718	0.218347209442546	9.999999999999867
0.279222885010558	0.233523322403783	9.999999999999977
0.289831742537398	0.248699435365020	9.999999999999886
0.300440600064239	0.263875548326258	10.000000000000059
0.311177303328045	0.278029160119272	9.999999999999892
0.321914006591853	0.292182771912287	9.999999999999908
0.332650709855660	0.306336383705301	9.999999999999785
0.343387413119466	0.320489995498316	10.000000000000069
0.354232473440826	0.333575200574574	10.000000000000018
0.365077533762185	0.346660405650833	10.000000000000099
0.375922594083545	0.359745610727091	10.000000000000311
0.386767654404904	0.372830815803349	9.999999999999778
0.397702362651578	0.384840099375547	9.999999999999769
0.408637070898251	0.396849382947745	9.999999999999947
0.419571779144924	0.408858666519943	10.000000000000147
0.430506487391599	0.420867950092141	9.999999999999837
0.441511354884171	0.431821732777954	9.999999999999764
0.452516222376743	0.442775515463766	10.000000000000357
0.463521089869315	0.453729298149578	9.999999999999694
0.474525957361888	0.464683080835391	10.000000000000105
0.485581495420940	0.474622203870168	10.000000000000021
0.496637033479991	0.484561326904945	10.000000000000055
0.507692571539043	0.494500449939722	10.000000000000142
0.518748109598094	0.504439572974499	10.000000000000167
0.529837168185741	0.513419090343492	10.000000000000048
0.540926226773387	0.522398607712485	10.000000000000043
0.552015285361033	0.531378125081478	9.999999999999869
0.563104343948679	0.540357642450472	10.000000000000030
0.574208213932685	0.548442083305534	9.999999999999915
0.585312083916691	0.556526524160597	10.000000000000147
0.596415953900696	0.564610965015659	10.000000000000050
0.607519823884702	0.572695405870722	10.000000000000250
0.618621355227174	0.579955017136656	9.999999999999741
0.629722886569645	0.587214628402590	9.999999999999844
0.640824417912117	0.594474239668523	9.999999999999915
0.651925949254589	0.601733850934457	10.000000000000021
0.663007991917648	0.608240839915361	9.999999999999826
0.674090034580705	0.614747828896265	10.000000000000034
0.685172077243763	0.621254817877169	10.000000000000115
0.696254119906820	0.627761806858073	10.000000000000352
0.707302642041282	0.633588054128163	9.999999999999714
0.718351164175745	0.639414301398254	10.000000000000215
0.729399686310207	0.645240548668344	9.999999999999645
0.740448208444671	0.651066795938434	10.000000000000126
0.751447619107005	0.656281159820510	10.000000000000220
0.762447029769341	0.661495523702587	10.000000000000174
0.773446440431677	0.666709887584663	9.999999999999545
0.784445851094013	0.671924251466740	9.999999999999938
0.795384457076569	0.676591898235927	9.999999999999790
0.806323063059125	0.681259545005114	10.000000000000178
0.817261669041681	0.685927191774301	10.000000000000179
0.828200275024236	0.690594838543488	10.000000000000178
0.839067162666542	0.694775510758856	9.999999999999867
0.849934050308850	0.698956182974223	9.999999999999934
0.860800937951159	0.703136855189591	9.999999999999920
0.871667825593465	0.707317527404959	10.000000000000163
0.882454419876578	0.711065347871593	10.000000000000050
0.893241014159692	0.714813168338228	9.999999999999513
0.904027608442805	0.718560988804862	10.000000000000032
0.914814202725918	0.722308809271496	9.999999999999982
0.925510369536541	0.725671970647110	9.999999999999904
0.936206536347164	0.729035132022724	9.999999999999808
0.946902703157788	0.732398293398338	10.000000000000098
0.957598869968412	0.735761454773952	10.000000000000380
0.968199152476310	0.738782464616297	9.999999999999909
0.978799434984206	0.741803474458643	10.000000000000062
0.989399717492103	0.744824484300988	9.999999999999542
1.000000000000000	0.747845494143334	9.999999999999934
0.133179788524445	0.005786059494506	10.000000000000009
0.143138016488984	0.023493185492853	10.000000000000000
0.153096244453521	0.041200311491201	10.000000000000004
0.163054472418059	0.058907437489549	10.000000000000004
0.173012700382598	0.076614563487896	10.000000000000009
0.183341992803218	0.093369312719117	9.999999999999998
0.193671285223838	0.110124061950338	9.999999999999984
0.204000577644457	0.126878811181559	10.000000000000036
0.214329870065077	0.143633560412780	10.000000000000012
0.224823257166379	0.159643283828746	9.999999999999995
0.235316644267680	0.175653007244712	9.999999999999998
0.245810031368982	0.191662730660678	10.000000000000036
0.256303418470282	0.207672454076645	9.999999999999980
0.266937708723759	0.222776584360578	9.999999999999977
0.277571998977238	0.237880714644510	9.999999999999996
0.288206289230716	0.252984844928443	9.999999999999961
0.298840579484194	0.268088975212376	10.000000000000004
0.309597648417989	0.282183489737839	10.000000000000016
0.320354717351785	0.296278004263302	9.999999999999979
0.331111786285581	0.310372518788765	9.999999999999977
0.341868855219379	0.324467033314229	10.000000000000036
0.352730480918241	0.337503596479185	10.000000000000012
0.363592106617105	0.350540159644142	10.000000000000020
0.374453732315968	0.363576722809098	10.000000000000030
0.385315358014832	0.376613285974055	9.999999999999991
0.396263610893699	0.388582504294374	9.999999999999973
0.407211863772567	0.400551722614694	10.000000000000043
0.418160116651434	0.412520940935014	9.999999999999950
0.429108369530302	0.424490159255333	9.999999999999991
0.440124443013538	0.435410921802365	9.999999999999938
0.451140516496775	0.446331684349397	10.000000000000057
0.462156589980010	0.457252446896429	9.999999999999980
0.473172663463247	0.468173209443461	10.000000000000028
0.484237750975213	0.478085070953642	10.000000000000000
0.495302838487178	0.487996932463822	9.999999999999964
0.506367925999144	0.497908793974003	10.000000000000060
0.517433013511110	0.507820655484184	10.000000000000016
0.528530354787508	0.516777608070646	9.999999999999957
0.539627696063906	0.525734560657109	10.000000000000036
0.550725037340304	0.534691513243571	10.000000000000028
0.561822378616702	0.543648465830034	9.999999999999915
0.572933751742282	0.551714140137453	10.000000000000018
0.584045124867863	0.559779814444872	9.999999999999989
0.595156497993443	0.567845488752291	10.000000000000023
0.606267871119024	0.575911163059711	10.000000000000028
0.617376320942689	0.583155009608799	10.000000000000036
0.628484770766354	0.590398856157888	9.999999999999954
0.639593220590019	0.597642702706977	9.999999999999968
0.650701670413684	0.604886549256066	10.000000000000050
0.661790436671140	0.611380142311775	9.999999999999996
0.672879202928596	0.617873735367484	9.999999999999979
0.683967969186052	0.624367328423193	9.999999999999989
0.695056735443508	0.630860921478902	10.000000000000007
0.706111981172369	0.636675561669906	10.000000000000018
0.717167226901230	0.642490201860910	10.000000000000052
0.728222472630091	0.648304842051913	9.999999999999982
0.739277718358952	0.654119482242917	9.999999999999975
0.750284047502480	0.659323670531206	10.000000000000002
0.761290376646009	0.664527858819495	10.000000000000046
0.772296705789535	0.669732047107784	9.999999999999988
0.783303034933064	0.674936235396073	10.000000000000004
0.794248851727003	0.679594780695962	9.999999999999996
0.805194668520943	0.684253325995851	10.000000000000048
0.816140485314884	0.688911871295741	10.000000000000073
0.827086302108824	0.693570416595630	10.000000000000055
0.837960790336104	0.697742834797334	9.999999999999957
0.848835278563382	0.701915252999037	10.000000000000032
0.859709766790661	0.706087671200741	10.000000000000062
0.870584255017941	0.710260089402444	9.999999999999940
0.881378742216217	0.714000331777860	10.000000000000044
0.892173229414494	0.717740574153275	9.999999999999973
0.902967716612770	0.721480816528690	9.999999999999963
0.913762203811048	0.725221058904105	10.000000000000085
0.924466848197218	0.728577209881671	10.000000000000018
0.935171492583386	0.731933360859237	9.999999999999991
0.945876136969555	0.735289511836803	9.999999999999945
0.956580781355725	0.738645662814369	10.000000000000039
0.967190028656153	0.741660156437614	9.999999999999931
0.977799275956582	0.744674650060860	9.999999999999934
0.988408523257010	0.747689143684106	10.000000000000046
0.999017770557438	0.750703637307351	9.999999999999911
0.130986532542980	0.011572118989011	10.000000000000012
0.140995723404190	0.029153127252598	9.999999999999993
0.151004914265401	0.046734135516185	10.000000000000020
0.161014105126612	0.064315143779772	10.000000000000011
0.171023295987823	0.081896152043359	9.999999999999980
0.181392637644643	0.098543774714257	10.000000000000032
0.191761979301461	0.115191397385154	9.999999999999984
0.202131320958280	0.131839020056052	9.999999999999975
0.212500662615100	0.148486642726950	10.000000000000012
0.223025913707247	0.164408434963208	10.000000000000016
0.233551164799393	0.180330227199466	9.999999999999963
0.244076415891539	0.196252019435723	9.999999999999980
0.254601666983686	0.212173811671981	10.000000000000004
0.265261389963801	0.227205959278609	10.000000000000005
0.275921112943916	0.242238106885238	10.000000000000062
0.286580835924032	0.257270254491866	9.999999999999998
0.297240558904147	0.272302402098494	9.999999999999952
0.308017993507932	0.286337819356406	9.999999999999993
0.318795428111718	0.300373236614318	10.000000000000037
0.329572862715505	0.314408653872229	10.000000000000027
0.340350297319291	0.328444071130141	9.999999999999982
0.351228488395658	0.341431992383796	10.000000000000002
0.362106679472024	0.354419913637451	10.000000000000044
0.372984870548392	0.367407834891105	9.999999999999972
0.383863061624760	0.380395756144760	10.000000000000032
0.394824859135821	0.392324909213201	9.999999999999995
0.405786656646883	0.404254062281642	9.999999999999972
0.416748454157944	0.416183215350084	10.000000000000002
0.427710251669006	0.428112368418525	10.000000000000005
0.438737531142905	0.439000110826776	10.000000000000030
0.449764810616806	0.449887853235028	9.999999999999918
0.460792090090707	0.460775595643279	10.000000000000068
0.471819369564606	0.471663338051531	9.999999999999977
0.482894006529485	0.481547938037115	10.000000000000057
0.493968643494365	0.491432538022700	9.999999999999948
0.505043280459244	0.501317138008285	10.000000000000039
0.516117917424125	0.511201737993870	9.999999999999947
0.527223541389274	0.520136125797801	9.999999999999901
0.538329165354424	0.529070513601733	9.999999999999986
0.549434789319575	0.538004901405664	10.000000000000030
0.560540413284724	0.546939289209595	9.999999999999989
0.571659289551879	0.554986196969371	10.000000000000041
0.582778165819036	0.563033104729147	9.999999999999979
0.593897042086192	0.571080012488923	10.000000000000002
0.605015918353347	0.579126920248699	9.999999999999952
0.616131286658205	0.586355002080943	10.000000000000004
0.627246654963062	0.593583083913186	9.999999999999996
0.638362023267921	0.600811165745430	9.999999999999973
0.649477391572778	0.608039247577674	9.999999999999995
0.660572881424633	0.614519444708188	10.000000000000012
0.671668371276488	0.620999641838702	10.000000000000041
0.682763861128342	0.627479838969217	9.999999999999970
0.693859350980197	0.633960036099731	9.999999999999931
0.704921320303455	0.639763069211648	9.999999999999991
0.715983289626715	0.645566102323566	10.000000000000044
0.727045258949975	0.651369135435483	10.000000000000037
0.738107228273233	0.657172168547400	10.000000000000014
0.749120475897952	0.662366181241901	9.999999999999950
0.760133723522673	0.667560193936403	9.999999999999922
0.771146971147394	0.672754206630905	10.000000000000066
0.782160218772115	0.677948219325406	9.999999999999988
0.793113246377439	0.682597663155998	10.000000000000034
0.804066273982763	0.687247106986589	9.999999999999973
0.815019301588086	0.691896550817181	10.000000000000025
0.825972329193411	0.696545994647772	9.999999999999989
0.836854418005662	0.700710158835812	9.999999999999956
0.847736506817914	0.704874323023851	9.999999999999950
0.858618595630166	0.709038487211891	10.000000000000119
0.869500684442417	0.713202651399930	9.999999999999998
0.880303064555858	0.716935315684126	9.999999999999932
0.891105444669298	0.720667979968322	10.000000000000043
0.901907824782738	0.724400644252518	9.999999999999964
0.912710204896179	0.728133308536714	9.999999999999991
0.923423326857893	0.731482449116232	10.000000000000096
0.934136448819608	0.734831589695750	10.000000000000004
0.944849570781322	0.738180730275268	10.000000000000025
0.955562692743036	0.741529870854786	10.000000000000064
0.966180904835997	0.744537848258932	10.000000000000087
0.976799116928957	0.747545825663077	9.999999999999858
0.987417329021916	0.750553803067223	9.999999999999922
0.998035541114877	0.753561780471368	10.000000000000119
0.128793276561515	0.017358178483517	10.000000000000016
0.138853430319398	0.034813069012343	9.999999999999993
0.148913584077282	0.052267959541169	10.000000000000000
0.158973737835165	0.069722850069995	9.999999999999984
0.169033891593048	0.087177740598821	9.999999999999996
0.179443282486067	0.103718236709396	10.000000000000012
0.189852673379085	0.120258732819971	9.999999999999995
0.200262064272104	0.136799228930546	9.999999999999959
0.210671455165124	0.153339725041120	9.999999999999970
0.221228570248115	0.169173586097669	9.999999999999996
0.231785685331105	0.185007447154219	9.999999999999986
0.242342800414097	0.200841308210768	9.999999999999993
0.252899915497089	0.216675169267317	10.000000000000005
0.263585071203841	0.231635334196641	10.000000000000020
0.274270226910594	0.246595499125965	10.000000000000052
0.284955382617347	0.261555664055289	10.000000000000028
0.295640538324100	0.276515828984613	9.999999999999972
0.306438338597875	0.290492148974973	9.999999999999989
0.317236138871651	0.304468468965333	9.999999999999991
0.328033939145426	0.318444788955694	10.000000000000018
0.338831739419203	0.332421108946054	9.999999999999968
0.349726495873073	0.345360388288407	9.999999999999984
0.360621252326944	0.358299667630759	10.000000000000002
0.371516008780816	0.371238946973112	10.000000000000028
0.382410765234687	0.384178226315465	9.999999999999984
0.393386107377943	0.396067314132028	10.000000000000000
0.404361449521199	0.407956401948591	9.999999999999957
0.415336791664455	0.419845489765154	10.000000000000032
0.426312133807710	0.431734577581717	9.999999999999956
0.437350619272274	0.442589299851188	10.000000000000037
0.448389104736837	0.453444022120659	9.999999999999977
0.459427590201401	0.464298744390130	10.000000000000018
0.470466075665965	0.475153466659601	10.000000000000028
0.481550262083758	0.485010805120589	10.000000000000037
0.492634448501552	0.494868143581578	10.000000000000050
0.503718634919345	0.504725482042567	10.000000000000009
0.514802821337139	0.514582820503555	9.999999999999998
0.525916727991041	0.523494643524956	9.999999999999975
0.537030634644943	0.532406466546356	9.999999999999993
0.548144541298844	0.541318289567757	9.999999999999963
0.559258447952746	0.550230112589157	9.999999999999988
0.570384827361478	0.558258253801290	9.999999999999988
0.581511206770208	0.566286395013423	10.000000000000073
0.592637586178939	0.574314536225555	10.000000000000018
0.603763965587671	0.582342677437688	9.999999999999948
0.614886252373720	0.589554994553086	9.999999999999973
0.626008539159772	0.596767311668485	9.999999999999995
0.637130825945823	0.603979628783883	9.999999999999950
0.648253112731873	0.611191945899282	9.999999999999980
0.659355326178126	0.617658747104602	9.999999999999963
0.670457539624379	0.624125548309921	10.000000000000039
0.681559753070633	0.630592349515241	10.000000000000057
0.692661966516886	0.637059150720560	10.000000000000002
0.703730659434543	0.642850576753391	9.999999999999964
0.714799352352200	0.648642002786222	9.999999999999996
0.725868045269857	0.654433428819052	9.999999999999956
0.736936738187514	0.660224854851883	10.000000000000005
0.747956904293427	0.665408691952597	10.000000000000062
0.758977070399340	0.670592529053311	9.999999999999927
0.769997236505253	0.675776366154025	9.999999999999961
0.781017402611167	0.680960203254739	9.999999999999996
0.791977641027874	0.685600545616033	10.000000000000009
0.802937879444582	0.690240887977327	9.999999999999888
0.813898117861291	0.694881230338621	9.999999999999934
0.824858356277999	0.699521572699915	10.000000000000007
0.835748045675224	0.703677482874290	10.000000000000055
0.846637735072447	0.707833393048665	9.999999999999904
0.857527424469671	0.711989303223040	9.999999999999993
0.868417113866894	0.716145213397415	10.000000000000107
0.879227386895498	0.719870299590392	10.000000000000004
0.890037659924101	0.723595385783369	9.999999999999956
0.900847932952704	0.727320471976345	10.000000000000012
0.911658205981308	0.731045558169322	9.999999999999881
0.922379805518569	0.734387688350792	9.999999999999959
0.933101405055829	0.737729818532263	10.000000000000032
0.943823004593090	0.741071948713733	9.999999999999941
0.954544604130350	0.744414078895204	9.999999999999954
0.965171781015841	0.747415540080249	10.000000000000123
0.975798957901333	0.750417001265294	10.000000000000149
0.986426134786824	0.753418462450340	9.999999999999876
0.997053311672315	0.756419923635385	9.999999999999579
0.126600020580049	0.023144237978023	10.000000000000007
0.136711137234606	0.040473010772088	10.000000000000011
0.146822253889162	0.057801783566153	9.999999999999984
0.156933370543718	0.075130556360219	9.999999999999989
0.167044487198274	0.092459329154284	10.000000000000016
0.177493927327493	0.108892698704535	10.000000000000007
0.187943367456710	0.125326068254787	10.000000000000014
0.198392807585929	0.141759437805039	9.999999999999996
0.208842247715148	0.158192807355291	9.999999999999975
0.219431226788984	0.173938737232131	9.999999999999970
0.230020205862819	0.189684667108972	10.000000000000007
0.240609184936655	0.205430596985812	9.999999999999998
0.251198164010493	0.221176526862653	9.999999999999991
0.261908752443882	0.236064709114672	9.999999999999972
0.272619340877272	0.250952891366692	9.999999999999995
0.283329929310663	0.265841073618712	10.000000000000037
0.294040517744053	0.280729255870732	10.000000000000018
0.304858683687818	0.294646478593540	10.000000000000011
0.315676849631583	0.308563701316349	9.999999999999980
0.326495015575350	0.322480924039158	9.999999999999980
0.337313181519115	0.336398146761967	10.000000000000014
0.348224503350490	0.349288784193018	9.999999999999991
0.359135825181864	0.362179421624068	9.999999999999966
0.370047147013239	0.375070059055119	10.000000000000046
0.380958468844615	0.387960696486170	10.000000000000018
0.391947355620065	0.399809719050855	9.999999999999979
0.402936242395515	0.411658741615539	10.000000000000000
0.413925129170965	0.423507764180224	10.000000000000018
0.424914015946414	0.435356786744909	9.999999999999966
0.435963707401642	0.446178488875599	10.000000000000030
0.447013398856870	0.457000191006290	10.000000000000073
0.458063090312097	0.467821893136980	9.999999999999925
0.469112781767324	0.478643595267671	10.000000000000009
0.480206517638033	0.488473672204063	10.000000000000011
0.491300253508740	0.498303749140456	10.000000000000032
0.502393989379447	0.508133826076848	10.000000000000016
0.513487725250155	0.517963903013240	10.000000000000068
0.524609914592808	0.526853161252110	10.000000000000064
0.535732103935461	0.535742419490980	10.000000000000009
0.546854293278114	0.544631677729850	10.000000000000023
0.557976482620768	0.553520935968719	9.999999999999922
0.569110365171074	0.561530310633208	9.999999999999913
0.580244247721381	0.569539685297698	10.000000000000002
0.591378130271687	0.577549059962187	10.000000000000016
0.602512012821993	0.585558434626676	10.000000000000032
0.613641218089236	0.592754987025230	9.999999999999947
0.624770423356480	0.599951539423783	9.999999999999977
0.635899628623724	0.607148091822337	9.999999999999931
0.647028833890967	0.614344644220890	10.000000000000014
0.658137770931618	0.620798049501015	10.000000000000012
0.669246707972270	0.627251454781140	9.999999999999975
0.680355645012922	0.633704860061264	10.000000000000068
0.691464582053574	0.640158265341389	10.000000000000052
0.702539998565630	0.645938084295134	10.000000000000011
0.713615415077685	0.651717903248878	9.999999999999991
0.724690831589739	0.657497722202622	10.000000000000011
0.735766248101795	0.663277541156366	9.999999999999922
0.746793332688900	0.668451202663293	10.000000000000096
0.757820417276006	0.673624864170219	10.000000000000036
0.768847501863112	0.678798525677146	9.999999999999947
0.779874586450217	0.683972187184073	9.999999999999929
0.790842035678309	0.688603428076069	10.000000000000059
0.801809484906403	0.693234668968065	10.000000000000053
0.812776934134495	0.697865909860061	9.999999999999879
0.823744383362587	0.702497150752057	10.000000000000009
0.834641673344782	0.706644806912768	10.000000000000044
0.845538963326979	0.710792463073479	9.999999999999940
0.856436253309176	0.714940119234190	9.999999999999979
0.867333543291371	0.719087775394901	10.000000000000062
0.878151709235138	0.722805283496658	10.000000000000082
0.888969875178904	0.726522791598416	10.000000000000030
0.899788041122671	0.730240299700173	9.999999999999982
0.910606207066438	0.733957807801931	9.999999999999975
0.921336284179244	0.737292927585353	9.999999999999892
0.932066361292051	0.740628047368776	9.999999999999970
0.942796438404857	0.743963167152198	10.000000000000044
0.953526515517663	0.747298286935621	9.999999999999908
0.964162657195685	0.750293231901566	9.999999999999902
0.974798798873708	0.753288176867511	10.000000000000087
0.985434940551732	0.756283121833457	10.000000000000112
0.996071082229754	0.759278066799402	9.999999999999817
0.124406764598583	0.028930297472529	10.000000000000002
0.134568844149813	0.046132952531833	10.000000000000014
0.144730923701042	0.063335607591138	10.000000000000007
0.154893003252271	0.080538262650442	10.000000000000002
0.165055082803501	0.097740917709746	10.000000000000000
0.175544572168918	0.114067160699675	10.000000000000012
0.186034061534335	0.130393403689604	10.000000000000044
0.196523550899753	0.146719646679532	9.999999999999988
0.207013040265170	0.163045889669461	10.000000000000048
0.217633883329852	0.178703888366593	9.999999999999982
0.228254726394533	0.194361887063725	10.000000000000025
0.238875569459215	0.210019885760857	9.999999999999989
0.249496412523897	0.225677884457989	9.999999999999991
0.260232433683923	0.240494084032704	9.999999999999963
0.270968454843952	0.255310283607419	9.999999999999963
0.281704476003980	0.270126483182135	10.000000000000005
0.292440497164006	0.284942682756850	10.000000000000046
0.303279028777761	0.298800808212107	9.999999999999986
0.314117560391516	0.312658933667365	9.999999999999977
0.324956092005271	0.326517059122622	9.999999999999991
0.335794623619027	0.340375184577879	9.999999999999998
0.346722510827905	0.353217180097628	9.999999999999996
0.357650398036784	0.366059175617377	9.999999999999993
0.368578285245663	0.378901171137127	9.999999999999986
0.379506172454542	0.391743166656876	10.000000000000018
0.390508603862186	0.403552123969682	9.999999999999998
0.401511035269829	0.415361081282488	10.000000000000000
0.412513466677472	0.427170038595294	9.999999999999991
0.423515898085117	0.438978995908100	10.000000000000032
0.434576795531008	0.449767677900010	10.000000000000004
0.445637692976899	0.460556359891920	9.999999999999993
0.456698590422791	0.471345041883831	10.000000000000046
0.467759487868683	0.482133723875741	9.999999999999977
0.478862773192305	0.491936539287537	9.999999999999931
0.489966058515928	0.501739354699333	9.999999999999993
0.501069343839550	0.511542170111129	9.999999999999972
0.512172629163171	0.521344985522926	10.000000000000002
0.523303101194577	0.530211678979265	10.000000000000034
0.534433573225981	0.539078372435603	10.000000000000037
0.545564045257385	0.547945065891942	10.000000000000087
0.556694517288791	0.556811759348281	10.000000000000000
0.567835902980672	0.564802367465127	10.000000000000020
0.578977288672553	0.572792975581973	9.999999999999995
0.590118674364433	0.580783583698819	10.000000000000020
0.601260060056315	0.588774191815665	10.000000000000057
0.612396183804752	0.595954979497373	9.999999999999998
0.623532307553188	0.603135767179082	10.000000000000027
0.634668431301624	0.610316554860790	9.999999999999936
0.645804555050062	0.617497342542498	10.000000000000014
0.656920215685111	0.623937351897428	10.000000000000012
0.668035876320162	0.630377361252358	9.999999999999956
0.679151536955212	0.636817370607288	10.000000000000012
0.690267197590262	0.643257379962218	10.000000000000025
0.701349337696716	0.649025591836876	10.000000000000021
0.712431477803169	0.654793803711534	9.999999999999980
0.723513617909622	0.660562015586192	10.000000000000004
0.734595758016076	0.666330227460849	9.999999999999956
0.745629761084374	0.671493713373989	10.000000000000014
0.756663764152672	0.676657199287128	9.999999999999995
0.767697767220970	0.681820685200267	9.999999999999984
0.778731770289268	0.686984171113406	9.999999999999950
0.789706430328745	0.691606310536104	9.999999999999927
0.800681090368221	0.696228449958803	10.000000000000098
0.811655750407699	0.700850589381501	10.000000000000027
0.822630410447175	0.705472728804199	9.999999999999957
0.833535301014344	0.709612130951246	9.999999999999984
0.844440191581511	0.713751533098293	10.000000000000012
0.855345082148679	0.717890935245339	9.999999999999929
0.866249972715848	0.722030337392386	10.000000000000005
0.877076031574778	0.725740267402924	10.000000000000020
0.887902090433708	0.729450197413463	10.000000000000119
0.898728149292639	0.733160127424001	10.000000000000128
0.909554208151569	0.736870057434539	10.000000000000046
0.920292762839921	0.740198166819914	10.000000000000018
0.931031317528273	0.743526276205289	9.999999999999972
0.941769872216624	0.746854385590663	9.999999999999986
0.952508426904976	0.750182494976038	10.000000000000044
0.963153533375530	0.753170923722883	9.999999999999908
0.973798639846084	0.756159352469728	9.999999999999943
0.984443746316638	0.759147781216574	10.000000000000052
0.995088852787192	0.762136209963419	10.000000000000041
0.122213508617116	0.034716356967034	10.000000000000005
0.132426551065019	0.051792894291578	9.999999999999996
0.142639593512921	0.068869431616122	10.000000000000009
0.152852635960823	0.085945968940665	10.000000000000012
0.163065678408726	0.103022506265209	9.999999999999991
0.173595217010343	0.119241622694815	9.999999999999989
0.184124755611961	0.135460739124420	10.000000000000021
0.194654294213578	0.151679855554026	9.999999999999982
0.205183832815194	0.167898971983631	10.000000000000020
0.215836539870720	0.183469039501055	10.000000000000016
0.226489246926247	0.199039107018478	9.999999999999970
0.237141953981773	0.214609174535902	10.000000000000004
0.247794661037299	0.230179242053325	10.000000000000020
0.258556114923965	0.244923458950736	9.999999999999998
0.269317568810631	0.259667675848147	9.999999999999968
0.280079022697297	0.274411892745558	9.999999999999959
0.290840476583961	0.289156109642969	10.000000000000016
0.301699373867706	0.302955137830674	10.000000000000037
0.312558271151450	0.316754166018380	10.000000000000028
0.323417168435195	0.330553194206086	10.000000000000016
0.334276065718940	0.344352222393792	9.999999999999988
0.345220518305322	0.357145576002239	10.000000000000012
0.356164970891704	0.369938929610686	9.999999999999966
0.367109423478087	0.382732283219134	9.999999999999991
0.378053876064470	0.395525636827581	10.000000000000004
0.389069852104308	0.407294528888509	9.999999999999970
0.400085828144145	0.419063420949436	9.999999999999956
0.411101804183982	0.430832313010364	9.999999999999984
0.422117780223821	0.442601205071292	10.000000000000027
0.433189883660376	0.453356866924422	9.999999999999991
0.444261987096932	0.464112528777551	9.999999999999989
0.455334090533487	0.474868190630681	10.000000000000000
0.466406193970042	0.485623852483811	10.000000000000000
0.477519028746579	0.495399406371011	9.999999999999986
0.488631863523115	0.505174960258211	10.000000000000018
0.499744698299650	0.514950514145411	9.999999999999940
0.510857533076186	0.524726068032611	9.999999999999977
0.521996287796343	0.533570196706419	9.999999999999995
0.533135042516499	0.542414325380227	9.999999999999986
0.544273797236656	0.551258454054035	10.000000000000048
0.555412551956813	0.560102582727843	10.000000000000027
0.566561440790268	0.568074424297046	10.000000000000012
0.577710329623725	0.576046265866248	9.999999999999941
0.588859218457182	0.584018107435451	10.000000000000050
0.600008107290638	0.591989949004654	10.000000000000023
0.611151149520268	0.599154971969517	9.999999999999998
0.622294191749898	0.606319994934380	10.000000000000092
0.633437233979526	0.613485017899243	10.000000000000021
0.644580276209156	0.620650040864107	9.999999999999968
0.655702660438604	0.627076654293842	9.999999999999988
0.666825044668053	0.633503267723577	9.999999999999973
0.677947428897503	0.639929881153312	9.999999999999970
0.689069813126951	0.646356494583047	9.999999999999956
0.700158676827802	0.652113099378619	9.999999999999970
0.711247540528654	0.657869704174190	10.000000000000052
0.722336404229506	0.663626308969761	9.999999999999984
0.733425267930357	0.669382913765333	10.000000000000025
0.744466189479849	0.674536224084684	9.999999999999977
0.755507111029339	0.679689534404036	10.000000000000075
0.766548032578830	0.684842844723388	9.999999999999954
0.777588954128320	0.689996155042739	10.000000000000027
0.788570824979181	0.694609192996140	9.999999999999957