TITLE="XJ contour plot on physical mesh"
VARIABLES="X","Y","XJ"
ZONE	 F=POINT
I=81, J=81
0.135373044505911	0.000000000000000	0.000096436893597
0.145280309573776	0.017833243733109	0.000094278578011
0.155187574641642	0.035666487466217	0.000092120262426
0.165094839709507	0.053499731199325	0.000089961946840
0.175002104777373	0.071332974932434	0.000087846135053
0.185291347961793	0.088194850723978	0.000086111082374
0.195580591146212	0.105056726515522	0.000084333525897
0.205869834330632	0.121918602307066	0.000082555969420
0.216159077515053	0.138780478098610	0.000080497497722
0.226620600625510	0.154878132694285	0.000078783752913
0.237082123735966	0.170975787289959	0.000077350923326
0.247543646846422	0.187073441885634	0.000075918093738
0.258005169956878	0.203171096481309	0.000074032749175
0.268614027483718	0.218347209442546	0.000072430610299
0.279222885010558	0.233523322403783	0.000071280986398
0.289831742537398	0.248699435365020	0.000070131362498
0.300440600064239	0.263875548326258	0.000068433061474
0.311177303328045	0.278029160119272	0.000066961626738
0.321914006591853	0.292182771912287	0.000066038869126
0.332650709855660	0.306336383705301	0.000065116111514
0.343387413119466	0.320489995498316	0.000063597605229
0.354232473440826	0.333575200574574	0.000062257570733
0.365077533762185	0.346660405650833	0.000061513284909
0.375922594083545	0.359745610727091	0.000060768999085
0.386767654404904	0.372830815803349	0.000059412980104
0.397702362651578	0.384840099375547	0.000058200483779
0.408637070898251	0.396849382947745	0.000057599720610
0.419571779144924	0.408858666519943	0.000056998957441
0.430506487391599	0.420867950092141	0.000055787402682
0.441511354884171	0.431821732777954	0.000054690480855
0.452516222376743	0.442775515463766	0.000054204350616
0.463521089869315	0.453729298149578	0.000053718220378
0.474525957361888	0.464683080835391	0.000052633947179
0.485581495420940	0.474622203870168	0.000051639500208
0.496637033479991	0.484561326904945	0.000051243196198
0.507692571539043	0.494500449939722	0.000050846892188
0.518748109598094	0.504439572974499	0.000049876269186
0.529837168185741	0.513419090343492	0.000048977353452
0.540926226773387	0.522398607712485	0.000048652756709
0.552015285361033	0.531378125081478	0.000048328159966
0.563104343948679	0.540357642450472	0.000047454205537
0.574208213932685	0.548442083305534	0.000046635807842
0.585312083916691	0.556526524160597	0.000046366767833
0.596415953900696	0.564610965015659	0.000046097727823
0.607519823884702	0.572695405870722	0.000045308603720
0.618621355227174	0.579955017136656	0.000044563281643
0.629722886569645	0.587214628402590	0.000044338043661
0.640824417912117	0.594474239668523	0.000044112805679
0.651925949254589	0.601733850934457	0.000043396136964
0.663007991917648	0.608240839915361	0.000042712501662
0.674090034580705	0.614747828896265	0.000042520297093
0.685172077243763	0.621254817877169	0.000042328092524
0.696254119906820	0.627761806858073	0.000041676391200
0.707302642041282	0.633588054128163	0.000041049480052
0.718351164175745	0.639414301398254	0.000040882065659
0.729399686310207	0.645240548668344	0.000040714651265
0.740448208444671	0.651066795938434	0.000040114174192
0.751447619107005	0.656281159820510	0.000039533110500
0.762447029769341	0.661495523702587	0.000039385109487
0.773446440431677	0.666709887584663	0.000039237108474
0.784445851094013	0.671924251466740	0.000038685137525
0.795384457076569	0.676591898235927	0.000038147952683
0.806323063059125	0.681259545005114	0.000038014737776
0.817261669041681	0.685927191774301	0.000037881522869
0.828200275024236	0.690594838543488	0.000037370367971
0.839067162666542	0.694775510758856	0.000036870956986
0.849934050308850	0.698956182974223	0.000036749485993
0.860800937951159	0.703136855189591	0.000036628014999
0.871667825593465	0.707317527404959	0.000036153897203
0.882454419876578	0.711065347871593	0.000035689927375
0.893241014159692	0.714813168338228	0.000035578604351
0.904027608442805	0.718560988804862	0.000035467281327
0.914814202725918	0.722308809271496	0.000035021954142
0.925510369536541	0.725671970647110	0.000034584454141
0.936206536347164	0.729035132022724	0.000034480958299
0.946902703157788	0.732398293398338	0.000034377462458
0.957598869968412	0.735761454773952	0.000033961521188
0.968199152476310	0.738782464616297	0.000033552919269
0.978799434984206	0.741803474458643	0.000033456762780
0.989399717492103	0.744824484300988	0.000033360606290
1.000000000000000	0.747845494143334	0.000033264449800
0.133179788524445	0.005786059494506	0.000096455159473
0.143138016488984	0.023493185492853	0.000094296843887
0.153096244453521	0.041200311491201	0.000092138528302
0.163054472418059	0.058907437489549	0.000089980212716
0.173012700382598	0.076614563487896	0.000087854470759
0.183341992803218	0.093369312719117	0.000086109487912
0.193671285223838	0.110124061950338	0.000084331931435
0.204000577644457	0.126878811181559	0.000082554374958
0.214329870065077	0.143633560412780	0.000080493597591
0.224823257166379	0.159643283828746	0.000078777547114
0.235316644267680	0.175653007244712	0.000077344717527
0.245810031368982	0.191662730660678	0.000075911887940
0.256303418470282	0.207672454076645	0.000074025638860
0.266937708723759	0.222776584360578	0.000072422595468
0.277571998977238	0.237880714644510	0.000071272971567
0.288206289230716	0.252984844928443	0.000070123347667
0.298840579484194	0.268088975212376	0.000068424680267
0.309597648417989	0.282183489737839	0.000066952879156
0.320354717351785	0.296278004263302	0.000066030121543
0.331111786285581	0.310372518788765	0.000065107363931
0.341868855219379	0.324467033314229	0.000063589239225
0.352730480918241	0.337503596479185	0.000062249586307
0.363592106617105	0.350540159644142	0.000061505300483
0.374453732315968	0.363576722809098	0.000060761014659
0.385315358014832	0.376613285974055	0.000059405510664
0.396263610893699	0.388582504294374	0.000058193529325
0.407211863772567	0.400551722614694	0.000057592766156
0.418160116651434	0.412520940935014	0.000056992002987
0.429108369530302	0.424490159255333	0.000055781137654
0.440124443013538	0.435410921802365	0.000054684905251
0.451140516496775	0.446331684349397	0.000054198775013
0.462156589980010	0.457252446896429	0.000053712644774
0.473172663463247	0.468173209443461	0.000052629377359
0.484237750975213	0.478085070953642	0.000051635936172
0.495302838487178	0.487996932463822	0.000051239632162
0.506367925999144	0.497908793974003	0.000050843328152
0.517433013511110	0.507820655484184	0.000049873651967
0.528530354787508	0.516777608070646	0.000048975683048
0.539627696063906	0.525734560657109	0.000048651086305
0.550725037340304	0.534691513243571	0.000048326489562
0.561822378616702	0.543648465830034	0.000047453687061
0.572933751742282	0.551714140137453	0.000046636441292
0.584045124867863	0.559779814444872	0.000046367401283
0.595156497993443	0.567845488752291	0.000046098361274
0.606267871119024	0.575911163059711	0.000045310176182
0.617376320942689	0.583155009608799	0.000044565793118
0.628484770766354	0.590398856157888	0.000044340555136
0.639593220590019	0.597642702706977	0.000044115317154
0.650701670413684	0.604886549256066	0.000043399791260
0.661790436671140	0.611380142311775	0.000042717298779
0.672879202928596	0.617873735367484	0.000042525094210
0.683967969186052	0.624367328423193	0.000042332889641
0.695056735443508	0.630860921478902	0.000041682259286
0.706111981172369	0.636675561669906	0.000041056419106
0.717167226901230	0.642490201860910	0.000040889004712
0.728222472630091	0.648304842051913	0.000040721590318
0.739277718358952	0.654119482242917	0.000040122248480
0.750284047502480	0.659323670531206	0.000039542320021
0.761290376646009	0.664527858819495	0.000039394319008
0.772296705789535	0.669732047107784	0.000039246317995
0.783303034933064	0.674936235396073	0.000038695401057
0.794248851727003	0.679594780695962	0.000038159270225
0.805194668520943	0.684253325995851	0.000038026055318
0.816140485314884	0.688911871295741	0.000037892840411
0.827086302108824	0.693570416595630	0.000037382737435
0.837960790336104	0.697742834797334	0.000036884378372
0.848835278563382	0.701915252999037	0.000036762907379
0.859709766790661	0.706087671200741	0.000036641436385
0.870584255017941	0.710260089402444	0.000036168114894
0.881378742216217	0.714000331777860	0.000035704941371
0.892173229414494	0.717740574153275	0.000035593618346
0.902967716612770	0.721480816528690	0.000035482295322
0.913762203811048	0.725221058904105	0.000035038118083
0.924466848197218	0.728577209881671	0.000034601768026
0.935171492583386	0.731933360859237	0.000034498272184
0.945876136969555	0.735289511836803	0.000034394776343
0.956580781355725	0.738645662814369	0.000033979789249
0.967190028656153	0.741660156437614	0.000033572141508
0.977799275956582	0.744674650060860	0.000033475985018
0.988408523257010	0.747689143684106	0.000033379828528
0.999017770557438	0.750703637307351	0.000033283672038
0.130986532542980	0.011572118989011	0.000096473425349
0.140995723404190	0.029153127252598	0.000094315109763
0.151004914265401	0.046734135516185	0.000092156794178
0.161014105126612	0.064315143779772	0.000089998478592
0.171023295987823	0.081896152043359	0.000087862806466
0.181392637644643	0.098543774714257	0.000086107893449
0.191761979301461	0.115191397385154	0.000084330336972
0.202131320958280	0.131839020056052	0.000082552780495
0.212500662615100	0.148486642726950	0.000080489697461
0.223025913707247	0.164408434963208	0.000078771341316
0.233551164799393	0.180330227199466	0.000077338511728
0.244076415891539	0.196252019435723	0.000075905682141
0.254601666983686	0.212173811671981	0.000074018528545
0.265261389963801	0.227205959278609	0.000072414580637
0.275921112943916	0.242238106885238	0.000071264956736
0.286580835924032	0.257270254491866	0.000070115332836
0.297240558904147	0.272302402098494	0.000068416299061
0.308017993507932	0.286337819356406	0.000066944131573
0.318795428111718	0.300373236614318	0.000066021373960
0.329572862715505	0.314408653872229	0.000065098616348
0.340350297319291	0.328444071130141	0.000063580873220
0.351228488395658	0.341431992383796	0.000062241601881
0.362106679472024	0.354419913637451	0.000061497316057
0.372984870548392	0.367407834891105	0.000060753030233
0.383863061624760	0.380395756144760	0.000059398041225
0.394824859135821	0.392324909213201	0.000058186574872
0.405786656646883	0.404254062281642	0.000057585811703
0.416748454157944	0.416183215350084	0.000056985048534
0.427710251669006	0.428112368418525	0.000055774872625
0.438737531142905	0.439000110826776	0.000054679329647
0.449764810616806	0.449887853235028	0.000054193199409
0.460792090090707	0.460775595643279	0.000053707069170
0.471819369564606	0.471663338051531	0.000052624807539
0.482894006529485	0.481547938037115	0.000051632372136
0.493968643494365	0.491432538022700	0.000051236068126
0.505043280459244	0.501317138008285	0.000050839764116
0.516117917424125	0.511201737993870	0.000049871034747
0.527223541389274	0.520136125797801	0.000048974012645
0.538329165354424	0.529070513601733	0.000048649415902
0.549434789319575	0.538004901405664	0.000048324819159
0.560540413284724	0.546939289209595	0.000047453168584
0.571659289551879	0.554986196969371	0.000046637074743
0.582778165819036	0.563033104729147	0.000046368034733
0.593897042086192	0.571080012488923	0.000046098994724
0.605015918353347	0.579126920248699	0.000045311748645
0.616131286658205	0.586355002080943	0.000044568304593
0.627246654963062	0.593583083913186	0.000044343066611
0.638362023267921	0.600811165745430	0.000044117828628
0.649477391572778	0.608039247577674	0.000043403445556
0.660572881424633	0.614519444708188	0.000042722095896
0.671668371276488	0.620999641838702	0.000042529891327
0.682763861128342	0.627479838969217	0.000042337686758
0.693859350980197	0.633960036099731	0.000041688127371
0.704921320303455	0.639763069211648	0.000041063358159
0.715983289626715	0.645566102323566	0.000040895943766
0.727045258949975	0.651369135435483	0.000040728529372
0.738107228273233	0.657172168547400	0.000040130322767
0.749120475897952	0.662366181241901	0.000039551529543
0.760133723522673	0.667560193936403	0.000039403528529
0.771146971147394	0.672754206630905	0.000039255527516
0.782160218772115	0.677948219325406	0.000038705664588
0.793113246377439	0.682597663155998	0.000038170587767
0.804066273982763	0.687247106986589	0.000038037372860
0.815019301588086	0.691896550817181	0.000037904157953
0.825972329193411	0.696545994647772	0.000037395106899
0.836854418005662	0.700710158835812	0.000036897799759
0.847736506817914	0.704874323023851	0.000036776328765
0.858618595630166	0.709038487211891	0.000036654857771
0.869500684442417	0.713202651399930	0.000036182332584
0.880303064555858	0.716935315684126	0.000035719955366
0.891105444669298	0.720667979968322	0.000035608632342
0.901907824782738	0.724400644252518	0.000035497309318
0.912710204896179	0.728133308536714	0.000035054282023
0.923423326857893	0.731482449116232	0.000034619081911
0.934136448819608	0.734831589695750	0.000034515586069
0.944849570781322	0.738180730275268	0.000034412090228
0.955562692743036	0.741529870854786	0.000033998057311
0.966180904835997	0.744537848258932	0.000033591363746
0.976799116928957	0.747545825663077	0.000033495207256
0.987417329021916	0.750553803067223	0.000033399050766
0.998035541114877	0.753561780471368	0.000033302894276
0.128793276561515	0.017358178483517	0.000096491691225
0.138853430319398	0.034813069012343	0.000094333375639
0.148913584077282	0.052267959541169	0.000092175060054
0.158973737835165	0.069722850069995	0.000090016744468
0.169033891593048	0.087177740598821	0.000087871142173
0.179443282486067	0.103718236709396	0.000086106298987
0.189852673379085	0.120258732819971	0.000084328742510
0.200262064272104	0.136799228930546	0.000082551186033
0.210671455165124	0.153339725041120	0.000080485797330
0.221228570248115	0.169173586097669	0.000078765135517
0.231785685331105	0.185007447154219	0.000077332305930
0.242342800414097	0.200841308210768	0.000075899476343
0.252899915497089	0.216675169267317	0.000074011418231
0.263585071203841	0.231635334196641	0.000072406565806
0.274270226910594	0.246595499125965	0.000071256941906
0.284955382617347	0.261555664055289	0.000070107318005
0.295640538324100	0.276515828984613	0.000068407917854
0.306438338597875	0.290492148974973	0.000066935383990
0.317236138871651	0.304468468965333	0.000066012626378
0.328033939145426	0.318444788955694	0.000065089868765
0.338831739419203	0.332421108946054	0.000063572507216
0.349726495873073	0.345360388288407	0.000062233617455
0.360621252326944	0.358299667630759	0.000061489331631
0.371516008780816	0.371238946973112	0.000060745045807
0.382410765234687	0.384178226315465	0.000059390571785
0.393386107377943	0.396067314132028	0.000058179620418
0.404361449521199	0.407956401948591	0.000057578857249
0.415336791664455	0.419845489765154	0.000056978094080
0.426312133807710	0.431734577581717	0.000055768607597
0.437350619272274	0.442589299851188	0.000054673754043
0.448389104736837	0.453444022120659	0.000054187623805
0.459427590201401	0.464298744390130	0.000053701493567
0.470466075665965	0.475153466659601	0.000052620237719
0.481550262083758	0.485010805120589	0.000051628808100
0.492634448501552	0.494868143581578	0.000051232504090
0.503718634919345	0.504725482042567	0.000050836200080
0.514802821337139	0.514582820503555	0.000049868417527
0.525916727991041	0.523494643524956	0.000048972342242
0.537030634644943	0.532406466546356	0.000048647745499
0.548144541298844	0.541318289567757	0.000048323148756
0.559258447952746	0.550230112589157	0.000047452650108
0.570384827361478	0.558258253801290	0.000046637708193
0.581511206770208	0.566286395013423	0.000046368668184
0.592637586178939	0.574314536225555	0.000046099628174
0.603763965587671	0.582342677437688	0.000045313321107
0.614886252373720	0.589554994553086	0.000044570816068
0.626008539159772	0.596767311668485	0.000044345578085
0.637130825945823	0.603979628783883	0.000044120340103
0.648253112731873	0.611191945899282	0.000043407099852
0.659355326178126	0.617658747104602	0.000042726893013
0.670457539624379	0.624125548309921	0.000042534688444
0.681559753070633	0.630592349515241	0.000042342483875
0.692661966516886	0.637059150720560	0.000041693995456
0.703730659434543	0.642850576753391	0.000041070297213
0.714799352352200	0.648642002786222	0.000040902882819
0.725868045269857	0.654433428819052	0.000040735468426
0.736936738187514	0.660224854851883	0.000040138397054
0.747956904293427	0.665408691952597	0.000039560739064
0.758977070399340	0.670592529053311	0.000039412738051
0.769997236505253	0.675776366154025	0.000039264737037
0.781017402611167	0.680960203254739	0.000038715928120
0.791977641027874	0.685600545616033	0.000038181905309
0.802937879444582	0.690240887977327	0.000038048690402
0.813898117861291	0.694881230338621	0.000037915475495
0.824858356277999	0.699521572699915	0.000037407476363
0.835748045675224	0.703677482874290	0.000036911221145
0.846637735072447	0.707833393048665	0.000036789750151
0.857527424469671	0.711989303223040	0.000036668279158
0.868417113866894	0.716145213397415	0.000036196550275
0.879227386895498	0.719870299590392	0.000035734969362
0.890037659924101	0.723595385783369	0.000035623646338
0.900847932952704	0.727320471976345	0.000035512323313
0.911658205981308	0.731045558169322	0.000035070445963
0.922379805518569	0.734387688350792	0.000034636395796
0.933101405055829	0.737729818532263	0.000034532899954
0.943823004593090	0.741071948713733	0.000034429404113
0.954544604130350	0.744414078895204	0.000034016325373
0.965171781015841	0.747415540080249	0.000033610585984
0.975798957901333	0.750417001265294	0.000033514429494
0.986426134786824	0.753418462450340	0.000033418273005
0.997053311672315	0.756419923635385	0.000033322116515
0.126600020580049	0.023144237978023	0.000096509957101
0.136711137234606	0.040473010772088	0.000094351641515
0.146822253889162	0.057801783566153	0.000092193325930
0.156933370543718	0.075130556360219	0.000090035010344
0.167044487198274	0.092459329154284	0.000087879477880
0.177493927327493	0.108892698704535	0.000086104704525
0.187943367456710	0.125326068254787	0.000084327148048
0.198392807585929	0.141759437805039	0.000082549591571
0.208842247715148	0.158192807355291	0.000080481897200
0.219431226788984	0.173938737232131	0.000078758929719
0.230020205862819	0.189684667108972	0.000077326100131
0.240609184936655	0.205430596985812	0.000075893270544
0.251198164010493	0.221176526862653	0.000074004307916
0.261908752443882	0.236064709114672	0.000072398550975
0.272619340877272	0.250952891366692	0.000071248927075
0.283329929310663	0.265841073618712	0.000070099303174
0.294040517744053	0.280729255870732	0.000068399536647
0.304858683687818	0.294646478593540	0.000066926636407
0.315676849631583	0.308563701316349	0.000066003878795
0.326495015575350	0.322480924039158	0.000065081121183
0.337313181519115	0.336398146761967	0.000063564141212
0.348224503350490	0.349288784193018	0.000062225633029
0.359135825181864	0.362179421624068	0.000061481347205
0.370047147013239	0.375070059055119	0.000060737061381
0.380958468844615	0.387960696486170	0.000059383102345
0.391947355620065	0.399809719050855	0.000058172665965
0.402936242395515	0.411658741615539	0.000057571902796
0.413925129170965	0.423507764180224	0.000056971139627
0.424914015946414	0.435356786744909	0.000055762342568
0.435963707401642	0.446178488875599	0.000054668178440
0.447013398856870	0.457000191006290	0.000054182048201
0.458063090312097	0.467821893136980	0.000053695917963
0.469112781767324	0.478643595267671	0.000052615667899
0.480206517638033	0.488473672204063	0.000051625244064
0.491300253508740	0.498303749140456	0.000051228940054
0.502393989379447	0.508133826076848	0.000050832636043
0.513487725250155	0.517963903013240	0.000049865800308
0.524609914592808	0.526853161252110	0.000048970671839
0.535732103935461	0.535742419490980	0.000048646075096
0.546854293278114	0.544631677729850	0.000048321478353
0.557976482620768	0.553520935968719	0.000047452131631
0.569110365171074	0.561530310633208	0.000046638341643
0.580244247721381	0.569539685297698	0.000046369301634
0.591378130271687	0.577549059962187	0.000046100261624
0.602512012821993	0.585558434626676	0.000045314893570
0.613641218089236	0.592754987025230	0.000044573327542
0.624770423356480	0.599951539423783	0.000044348089560
0.635899628623724	0.607148091822337	0.000044122851578
0.647028833890967	0.614344644220890	0.000043410754148
0.658137770931618	0.620798049501015	0.000042731690130
0.669246707972270	0.627251454781140	0.000042539485561
0.680355645012922	0.633704860061264	0.000042347280992
0.691464582053574	0.640158265341389	0.000041699863541
0.702539998565630	0.645938084295134	0.000041077236267
0.713615415077685	0.651717903248878	0.000040909821873
0.724690831589739	0.657497722202622	0.000040742407479
0.735766248101795	0.663277541156366	0.000040146471342
0.746793332688900	0.668451202663293	0.000039569948585
0.757820417276006	0.673624864170219	0.000039421947572
0.768847501863112	0.678798525677146	0.000039273946558
0.779874586450217	0.683972187184073	0.000038726191651
0.790842035678309	0.688603428076069	0.000038193222850
0.801809484906403	0.693234668968065	0.000038060007943
0.812776934134495	0.697865909860061	0.000037926793036
0.823744383362587	0.702497150752057	0.000037419845827
0.834641673344782	0.706644806912768	0.000036924642531
0.845538963326979	0.710792463073479	0.000036803171537
0.856436253309176	0.714940119234190	0.000036681700544
0.867333543291371	0.719087775394901	0.000036210767966
0.878151709235138	0.722805283496658	0.000035749983358
0.888969875178904	0.726522791598416	0.000035638660333
0.899788041122671	0.730240299700173	0.000035527337309
0.910606207066438	0.733957807801931	0.000035086609904
0.921336284179244	0.737292927585353	0.000034653709681
0.932066361292051	0.740628047368776	0.000034550213840
0.942796438404857	0.743963167152198	0.000034446717998
0.953526515517663	0.747298286935621	0.000034034593434
0.964162657195685	0.750293231901566	0.000033629808222
0.974798798873708	0.753288176867511	0.000033533651733
0.985434940551732	0.756283121833457	0.000033437495243
0.996071082229754	0.759278066799402	0.000033341338753
0.124406764598583	0.028930297472529	0.000096528222977
0.134568844149813	0.046132952531833	0.000094369907391
0.144730923701042	0.063335607591138	0.000092211591806
0.154893003252271	0.080538262650442	0.000090053276220
0.165055082803501	0.097740917709746	0.000087887813587
0.175544572168918	0.114067160699675	0.000086103110062
0.186034061534335	0.130393403689604	0.000084325553585
0.196523550899753	0.146719646679532	0.000082547997108
0.207013040265170	0.163045889669461	0.000080477997069
0.217633883329852	0.178703888366593	0.000078752723920
0.228254726394533	0.194361887063725	0.000077319894333
0.238875569459215	0.210019885760857	0.000075887064745
0.249496412523897	0.225677884457989	0.000073997197601
0.260232433683923	0.240494084032704	0.000072390536144
0.270968454843952	0.255310283607419	0.000071240912244
0.281704476003980	0.270126483182135	0.000070091288343
0.292440497164006	0.284942682756850	0.000068391155440
0.303279028777761	0.298800808212107	0.000066917888824
0.314117560391516	0.312658933667365	0.000065995131212
0.324956092005271	0.326517059122622	0.000065072373600
0.335794623619027	0.340375184577879	0.000063555775207
0.346722510827905	0.353217180097628	0.000062217648603
0.357650398036784	0.366059175617377	0.000061473362779
0.368578285245663	0.378901171137127	0.000060729076955
0.379506172454542	0.391743166656876	0.000059375632906
0.390508603862186	0.403552123969682	0.000058165711512
0.401511035269829	0.415361081282488	0.000057564948343
0.412513466677472	0.427170038595294	0.000056964185174
0.423515898085117	0.438978995908100	0.000055756077539
0.434576795531008	0.449767677900010	0.000054662602836
0.445637692976899	0.460556359891920	0.000054176472598
0.456698590422791	0.471345041883831	0.000053690342359
0.467759487868683	0.482133723875741	0.000052611098079
0.478862773192305	0.491936539287537	0.000051621680028
0.489966058515928	0.501739354699333	0.000051225376018
0.501069343839550	0.511542170111129	0.000050829072007
0.512172629163171	0.521344985522926	0.000049863183088
0.523303101194577	0.530211678979265	0.000048969001436
0.534433573225981	0.539078372435603	0.000048644404693
0.545564045257385	0.547945065891942	0.000048319807950
0.556694517288791	0.556811759348281	0.000047451613155
0.567835902980672	0.564802367465127	0.000046638975093
0.578977288672553	0.572792975581973	0.000046369935084
0.590118674364433	0.580783583698819	0.000046100895075
0.601260060056315	0.588774191815665	0.000045316466032
0.612396183804752	0.595954979497373	0.000044575839017
0.623532307553188	0.603135767179082	0.000044350601035
0.634668431301624	0.610316554860790	0.000044125363053
0.645804555050062	0.617497342542498	0.000043414408443
0.656920215685111	0.623937351897428	0.000042736487247
0.668035876320162	0.630377361252358	0.000042544282678
0.679151536955212	0.636817370607288	0.000042352078109
0.690267197590262	0.643257379962218	0.000041705731627
0.701349337696716	0.649025591836876	0.000041084175320
0.712431477803169	0.654793803711534	0.000040916760926
0.723513617909622	0.660562015586192	0.000040749346533
0.734595758016076	0.666330227460849	0.000040154545629
0.745629761084374	0.671493713373989	0.000039579158106
0.756663764152672	0.676657199287128	0.000039431157093
0.767697767220970	0.681820685200267	0.000039283156080
0.778731770289268	0.686984171113406	0.000038736455183
0.789706430328745	0.691606310536104	0.000038204540392
0.800681090368221	0.696228449958803	0.000038071325485
0.811655750407699	0.700850589381501	0.000037938110578
0.822630410447175	0.705472728804199	0.000037432215291
0.833535301014344	0.709612130951246	0.000036938063917
0.844440191581511	0.713751533098293	0.000036816592923
0.855345082148679	0.717890935245339	0.000036695121930
0.866249972715848	0.722030337392386	0.000036224985657
0.877076031574778	0.725740267402924	0.000035764997353
0.887902090433708	0.729450197413463	0.000035653674329
0.898728149292639	0.733160127424001	0.000035542351304
0.909554208151569	0.736870057434539	0.000035102773844
0.920292762839921	0.740198166819914	0.000034671023566
0.931031317528273	0.743526276205289	0.000034567527725
0.941769872216624	0.746854385590663	0.000034464031883
0.952508426904976	0.750182494976038	0.000034052861496
0.963153533375530	0.753170923722883	0.000033649030461
0.973798639846084	0.756159352469728	0.000033552873971
0.984443746316638	0.759147781216574	0.000033456717481
0.995088852787192	0.762136209963419	0.000033360560991
0.122213508617116	0.034716356967034	0.000096546488853
0.132426551065019	0.051792894291578	0.000094388173268
0.142639593512921	0.068869431616122	0.000092229857682
0.152852635960823	0.085945968940665	0.000090071542096
0.163065678408726	0.103022506265209	0.000087896149294
0.173595217010343	0.119241622694815	0.000086101515600
0.184124755611961	0.135460739124420	0.000084323959123
0.194654294213578	0.151679855554026	0.000082546402646
0.205183832815194	0.167898971983631	0.000080474096939
0.215836539870720	0.183469039501055	0.000078746518121
0.226489246926247	0.199039107018478	0.000077313688534
0.237141953981773	0.214609174535902	0.000075880858947
0.247794661037299	0.230179242053325	0.000073990087286
0.258556114923965	0.244923458950736	0.000072382521313
0.269317568810631	0.259667675848147	0.000071232897413
0.280079022697297	0.274411892745558	0.000070083273513
0.290840476583961	0.289156109642969	0.000068382774233
0.301699373867706	0.302955137830674	0.000066909141242
0.312558271151450	0.316754166018380	0.000065986383629
0.323417168435195	0.330553194206086	0.000065063626017
0.334276065718940	0.344352222393792	0.000063547409203
0.345220518305322	0.357145576002239	0.000062209664177
0.356164970891704	0.369938929610686	0.000061465378353
0.367109423478087	0.382732283219134	0.000060721092529
0.378053876064470	0.395525636827581	0.000059368163466
0.389069852104308	0.407294528888509	0.000058158757058
0.400085828144145	0.419063420949436	0.000057557993889
0.411101804183982	0.430832313010364	0.000056957230720
0.422117780223821	0.442601205071292	0.000055749812511
0.433189883660376	0.453356866924422	0.000054657027232
0.444261987096932	0.464112528777551	0.000054170896994
0.455334090533487	0.474868190630681	0.000053684766755
0.466406193970042	0.485623852483811	0.000052606528259
0.477519028746579	0.495399406371011	0.000051618115992
0.488631863523115	0.505174960258211	0.000051221811981
0.499744698299650	0.514950514145411	0.000050825507971
0.510857533076186	0.524726068032611	0.000049860565868
0.521996287796343	0.533570196706419	0.000048967331033
0.533135042516499	0.542414325380227	0.000048642734290
0.544273797236656	0.551258454054035	0.000048318137547
0.555412551956813	0.560102582727843	0.000047451094678
0.566561440790268	0.568074424297046	0.000046639608544
0.577710329623725	0.576046265866248	0.000046370568534
0.588859218457182	0.584018107435451	0.000046101528525
0.600008107290638	0.591989949004654	0.000045318038495
0.611151149520268	0.599154971969517	0.000044578350492
0.622294191749898	0.606319994934380	0.000044353112510
0.633437233979526	0.613485017899243	0.000044127874528
0.644580276209156	0.620650040864107	0.000043418062739
0.655702660438604	0.627076654293842	0.000042741284364
0.666825044668053	0.633503267723577	0.000042549079795
0.677947428897503	0.639929881153312	0.000042356875226
0.689069813126951	0.646356494583047	0.000041711599712
0.700158676827802	0.652113099378619	0.000041091114374
0.711247540528654	0.657869704174190	0.000040923699980
0.722336404229506	0.663626308969761	0.000040756285586
0.733425267930357	0.669382913765333	0.000040162619916
0.744466189479849	0.674536224084684	0.000039588367627
0.755507111029339	0.679689534404036	0.000039440366614
0.766548032578830	0.684842844723388	0.000039292365601
0.777588954128320	0.689996155042739	0.000038746718714
0.788570824979181	0.694609192996140	0.000038215857934
0.799552695830042	0.699222230949541	0.000038082643027
0.810534566680903	0.703835268902941	0.000037949428120
0.821516437531763	0.708448306856342	0.000037444584755
0.832428928683904	0.712579454989724	0.000036951485303
0.843341419836044	0.716710603123107	0.000036830014310